24
Properties=species:S:1:pos:R:3:occupancy:R:1:bfactor:R:1:residuenames:S:1:atomtypes:S:1:residuenumbers:I:1:momenta:R:3:forces:R:3 charge=0 energy=-101.08816528320312 pbc="F F F"
O       -0.63995232       2.32582001      -1.02805015       1.00000000       0.00000000 UNL O         1       0.00000000       0.00000000       0.00000000       0.00679026      -0.00420190      -0.00203561
O       -2.30974465      -0.84879105      -1.88777600       1.00000000       0.00000000 UNL O         2       0.00000000       0.00000000       0.00000000      -0.00326761       0.02382644      -0.00558045
N       -0.15304491      -1.28637436      -0.05548414       1.00000000       0.00000000 UNL N         3       0.00000000       0.00000000       0.00000000       0.00406609       0.00893277       0.00408318
N        2.13622946      -0.63371463       0.14410287       1.00000000       0.00000000 UNL N         4       0.00000000       0.00000000       0.00000000       0.01298542      -0.00223057      -0.01638374
N       -2.62226633       1.19467445      -0.72580498       1.00000000       0.00000000 UNL N         5       0.00000000       0.00000000       0.00000000      -0.00983560      -0.01736351      -0.00415980
N        2.34253218      -1.89574231       0.19699334       1.00000000       0.00000000 UNL N         6       0.00000000       0.00000000       0.00000000       0.03889173      -0.00561512      -0.01066942
C       -0.33465720      -2.41776517       0.13464428       1.00000000       0.00000000 UNL C         7       0.00000000       0.00000000       0.00000000       0.00193786       0.00174200       0.00777489
C        0.64951857      -0.19349527      -0.14278579       1.00000000       0.00000000 UNL C         8       0.00000000       0.00000000       0.00000000      -0.02174608       0.01094201       0.00028204
C       -1.71323574       2.25948478      -0.49096388       1.00000000       0.00000000 UNL C         9       0.00000000       0.00000000       0.00000000       0.02386697       0.01127097      -0.00634170
C       -2.41317386       0.16847065      -1.34651186       1.00000000       0.00000000 UNL C         1       0.00000000       0.00000000       0.00000000      -0.01036052      -0.03173113       0.00725205
C        1.94041095      -0.55124038       0.13356412       1.00000000       0.00000000 UNL C         1       0.00000000       0.00000000       0.00000000      -0.02762953      -0.00387932       0.01878055
C       -0.84963256      -3.76045321       0.35177536       1.00000000       0.00000000 UNL C         1       0.00000000       0.00000000       0.00000000      -0.02375220      -0.00429677       0.00034901
C        2.97552982       0.43147843      -0.01662173       1.00000000       0.00000000 UNL C         1       0.00000000       0.00000000       0.00000000       0.01584870      -0.00852912       0.00188140
C       -2.24143181       3.26302947       0.48314375       1.00000000       0.00000000 UNL C         1       0.00000000       0.00000000       0.00000000       0.00524896       0.02093655       0.00698955
H        1.53770764      -2.44906584       0.33332801       1.00000000       0.00000000 UNL H         1       0.00000000       0.00000000       0.00000000      -0.00991097       0.00624668       0.00661733
H       -0.44230960      -4.46327712      -0.37958345       1.00000000       0.00000000 UNL H         1       0.00000000       0.00000000       0.00000000       0.00487502      -0.00666706      -0.01679133
H       -1.93989040      -3.72330728       0.23835675       1.00000000       0.00000000 UNL H         1       0.00000000       0.00000000       0.00000000       0.01244953      -0.00038141      -0.01088610
H       -0.61719570      -4.11546143       1.35959494       1.00000000       0.00000000 UNL H         1       0.00000000       0.00000000       0.00000000       0.01812854       0.00971415       0.01527366
H        4.01018750       0.30722363      -0.01517687       1.00000000       0.00000000 UNL H         1       0.00000000       0.00000000       0.00000000      -0.01655074       0.00165869      -0.00095974
H        4.11307543       2.33547801      -0.39622141       1.00000000       0.00000000 UNL H         2       0.00000000       0.00000000       0.00000000       0.00334393       0.00633054       0.01391657
H        4.59756923       2.90342888      -0.49517735       1.00000000       0.00000000 UNL H         2       0.00000000       0.00000000       0.00000000      -0.00969952      -0.02089557      -0.00654615
H       -1.45854800       3.97277985       0.72701033       1.00000000       0.00000000 UNL H         2       0.00000000       0.00000000       0.00000000       0.00235298       0.00555574      -0.00474340
H       -2.59739117       2.76078307       1.38077335       1.00000000       0.00000000 UNL H         2       0.00000000       0.00000000       0.00000000      -0.00383759      -0.00127390      -0.00348005
H       -3.08757139       3.79062935       0.04334421       1.00000000       0.00000000 UNL H         2       0.00000000       0.00000000       0.00000000      -0.01419531      -0.00009045       0.00537759
24
Properties=species:S:1:pos:R:3:occupancy:R:1:bfactor:R:1:residuenames:S:1:atomtypes:S:1:residuenumbers:I:1:momenta:R:3:forces:R:3 charge=0 energy=-98.89383697509766 pbc="F F F"
O       -0.75057829       1.07905603      -1.46345682       1.00000000       0.00000000 UNL O         1       1.16215025      -0.54248450      -0.67612861      -0.54157221       0.18976979       0.74062592
O       -4.13916704       2.34731008      -3.29797247       1.00000000       0.00000000 UNL O         2      -0.30608131      -1.31225272       0.83620249       0.71690398      -0.92957991       1.15771961
N       -3.49680069       1.93544448       2.71044051       1.00000000       0.00000000 UNL N         3      -1.68644926      -0.11762122      -0.34206052       2.97280717      -0.56569827       1.53825474
N       10.82994848       3.64822738       0.39130560       1.00000000       0.00000000 UNL N         4       0.02347102      -0.95373351      -0.31181395      -0.26849025       1.16475201       0.48744023
N       -2.94480524       1.75641422      -1.32136523       1.00000000       0.00000000 UNL N         5      -0.83922747       1.01382389      -0.09098915       0.08886075      -0.42806062       0.16198647
N        1.68071425      -6.32259386       1.46433592       1.00000000       0.00000000 UNL N         6       0.82650385       1.12136706      -0.22403346      -0.02738267       1.18763661      -0.42625839
C       -4.49020649      -6.46243383      -2.57419597       1.00000000       0.00000000 UNL C         7      -1.20422678      -0.02802340       0.51293038      -0.33013225       0.20956942      -0.38035774
C       -4.44791800       2.12103890       2.16357898       1.00000000       0.00000000 UNL C         8       0.32400990       0.04481310      -0.50900188      -2.95027137       0.56524205      -1.55232608
C       -1.68120861       1.28015095      -0.72854614       1.00000000       0.00000000 UNL C         9      -1.41694114      -0.13284676       0.10350782      -0.57583690      -0.32639027      -1.53085434
C       -3.52170874       1.97749044      -2.36629461       1.00000000       0.00000000 UNL C         1       0.55245370      -0.99815027      -0.37630320       0.32796299       0.98591024       0.01707757
C        1.49548239      -5.17231620       1.38798926       1.00000000       0.00000000 UNL C         1       0.11537348       1.83007542       0.90865731       0.01123067       0.16110423      -0.08951031
C       -3.66475441      -6.76652204      -1.46142977       1.00000000       0.00000000 UNL C         1       0.63344596       0.45119159      -0.58703703      -0.68004477      -0.86463976       0.99994534
C       10.98086951       4.72345667      -0.16508193       1.00000000       0.00000000 UNL C         1       0.22958980       0.86741100      -0.41533328       1.19485009      -1.12825274      -0.10015965
C       -1.68165033       1.08338486       0.76169386       1.00000000       0.00000000 UNL C         1       0.83414288      -0.64847276       0.27471837       0.90466762      -0.31009984      -0.13444990
H        1.65956181      -7.20367319       1.86848716       1.00000000       0.00000000 UNL H         1      -0.10522047      -0.08824464       0.19146687       0.01615200      -1.34874082       0.51576871
H       -4.01227386      -6.34214461      -0.52401463       1.00000000       0.00000000 UNL H         1       0.34515779      -0.20174307       0.25363237      -0.64375556       0.35248515       0.24227963
H       -2.69661024      -6.31958404      -1.53450109       1.00000000       0.00000000 UNL H         1       0.03232313      -0.11927167       0.06883630       1.10647440      -0.16430517      -0.47237676
H       -3.71794756      -7.86310176      -1.26028892       1.00000000       0.00000000 UNL H         1       0.14901419       0.09142757       0.27856404       0.54745829       0.46689025      -0.38949043
H       11.08109541       4.68885671      -1.23434016       1.00000000       0.00000000 UNL H         1       0.06211608      -0.09970093      -0.09863490      -0.39862514       0.15639108      -1.28333402
H       11.31897740       5.72359915       0.16855995       1.00000000       0.00000000 UNL H         2       0.17849844      -0.12729496       0.06536035      -0.52773470      -0.19289011       0.89605343
H       24.80128874       9.77001942       4.57491631       1.00000000       0.00000000 UNL H         2      -0.11150599       0.18548621       0.03961954      -0.00000000      -0.00000000      -0.00000000
H       -2.57618278       0.72833581       1.24144665       1.00000000       0.00000000 UNL H         2       0.07033493      -0.21423704       0.23270902      -0.62672830       0.37389389      -0.31394807
H       -1.44794830       2.05880962       1.19856935       1.00000000       0.00000000 UNL H         2       0.19586890      -0.01763340       0.06205356      -0.14216708      -0.30735612       0.24251126
H       -0.89880213       0.34002722       1.01829616       1.00000000       0.00000000 UNL H         2      -0.06480224      -0.00388510      -0.19692304      -0.17462613       0.75236923      -0.32659736
24
Properties=species:S:1:pos:R:3:occupancy:R:1:bfactor:R:1:residuenames:S:1:atomtypes:S:1:residuenumbers:I:1:momenta:R:3:forces:R:3 charge=0 energy=-99.56648254394531 pbc="F F F"
O       -1.07576942       1.22666781      -0.52845950       1.00000000       0.00000000 UNL O         1       1.53634810      -1.05765182      -0.47754114      -1.28463829       0.12595856       0.34219372
O       -3.69961837      -0.23943435      -3.01403597       1.00000000       0.00000000 UNL O         2       0.01967835      -1.00108929      -0.02075096       0.81235611       1.23834133       2.68959236
N       -5.30986694       1.27113367       1.56278904       1.00000000       0.00000000 UNL N         3      -0.08215028       0.14317870      -0.62486336       0.52701730      -0.89147478       0.57360429
N       11.88393530       5.08479672      -0.42185083       1.00000000       0.00000000 UNL N         4      -0.37335971      -0.37261498      -1.71954781      -1.16428316      -0.99656630       0.43141925
N       -3.32925283       0.71725404      -0.83721414       1.00000000       0.00000000 UNL N         5      -0.97016372      -0.40393361       0.47539126       0.43117559      -0.17978029      -0.96138906
N        3.77486324      -4.86336800      -0.88175284       1.00000000       0.00000000 UNL N         6       0.14826027       0.62941773       0.51883651       1.70701826       0.13665836      -0.24109507
C       -4.52052802      -5.76452218      -0.72084666       1.00000000       0.00000000 UNL C         7      -1.03211422       0.05617122       0.37746435       0.21119118       0.12952949      -0.20894158
C       -6.12539773       1.88006739       1.08391227       1.00000000       0.00000000 UNL C         8      -0.28995548       0.73624085       0.65253113      -0.54622418       0.72586989      -0.54514778
C       -2.21428684       1.29652496      -0.12171687       1.00000000       0.00000000 UNL C         9       0.14455156       1.12712647      -0.96257975       0.44940993      -0.26228246      -0.19547671
C       -3.43018524       0.24082940      -1.96214303       1.00000000       0.00000000 UNL C         1      -0.33455656       0.17272689       1.00299028      -0.71397090      -0.72270548      -1.38549900
C        4.96015728      -4.73625304      -0.93194073       1.00000000       0.00000000 UNL C         1       0.67135929      -0.63283535       0.58434964      -2.85400844      -0.31081599       0.10359199
C       -3.25945462      -5.84305307      -0.04601450       1.00000000       0.00000000 UNL C         1       0.23538813      -0.77148389      -0.76286666       2.12457800      -0.73463655      -0.68871152
C       11.04879961       4.44162394       0.20788651       1.00000000       0.00000000 UNL C         1       1.14012419       0.25915438       0.74897567       1.00179768      -0.57422423      -0.99527431
C       -2.66720132       1.90915761       1.16929507       1.00000000       0.00000000 UNL C         1       0.01935339       1.00107586      -0.11761223       0.47566044      -1.34709311       1.07459450
H        2.78245003      -5.01895626      -1.01855404       1.00000000       0.00000000 UNL H         1      -0.03553320       0.12346690       0.04863181       1.14699006       0.17415762       0.13750306
H       -2.58243787      -4.91356432      -0.12509641       1.00000000       0.00000000 UNL H         1      -0.03058401      -0.06633250      -0.07083263      -1.07680690      -1.25881469      -0.17081651
H       -2.63235734      -6.79256547      -0.43523936       1.00000000       0.00000000 UNL H         1      -0.22456917       0.10689782      -0.05681151      -1.36304665       2.03456354       0.78914320
H       -3.47024048      -5.97449970       1.01722962       1.00000000       0.00000000 UNL H         1       0.09267814      -0.10705653       0.28586084       0.10408440      -0.17064203       0.27932650
H       10.71368204       4.77819613       1.17839177       1.00000000       0.00000000 UNL H         1      -0.04244568      -0.02072526      -0.00391353      -0.41025442       0.31970769       0.66125560
H       10.61508258       3.40257086      -0.06116937       1.00000000       0.00000000 UNL H         2      -0.28844100      -0.04717760       0.23892444       0.57274008       1.25108266      -0.09740049
H        2.43605246      18.43970702      14.47572055       1.00000000       0.00000000 UNL H         2       0.14234482       0.21499894       0.19511408      -0.00000000      -0.00000000      -0.00000000
H       -2.93140907       1.09590475       1.89397101       1.00000000       0.00000000 UNL H         2      -0.24803370      -0.42316050      -0.27979048       0.35989460       0.32343301      -0.79879212
H       -3.64785922       2.34301570       1.12786476       1.00000000       0.00000000 UNL H         2      -0.19583554       0.20606854       0.21061387      -0.14805940       0.77090693      -0.33828026
H       -1.86038176       2.46498937       1.65575518       1.00000000       0.00000000 UNL H         2      -0.00234456       0.12753671      -0.24257427      -0.36262065       0.21882655      -0.45540029
24
Properties=species:S:1:pos:R:3:occupancy:R:1:bfactor:R:1:residuenames:S:1:atomtypes:S:1:residuenumbers:I:1:momenta:R:3:forces:R:3 charge=0 energy=-101.07183837890625 pbc="F F F"
O       -0.65379318       2.31145618      -0.99279762       1.00000000       0.00000000 UNL O         1       0.00000000       0.00000000       0.00000000      -0.00817580      -0.00146823       0.00299287
O       -2.39119517      -0.84669873      -1.83044218       1.00000000       0.00000000 UNL O         2       0.00000000       0.00000000       0.00000000      -0.00193857      -0.01164913      -0.00188565
N       -0.15546621      -1.29057588      -0.10309747       1.00000000       0.00000000 UNL N         3       0.00000000       0.00000000       0.00000000      -0.00501092      -0.02178146       0.00500541
N        2.14688950      -0.65902300      -0.00649352       1.00000000       0.00000000 UNL N         4       0.00000000       0.00000000       0.00000000       0.00356781      -0.00335547      -0.02122156
N       -2.62970648       1.18392008      -0.63085889       1.00000000       0.00000000 UNL N         5       0.00000000       0.00000000       0.00000000       0.00373791       0.01077291      -0.00435048
N        2.29902277      -1.81462696       0.51998007       1.00000000       0.00000000 UNL N         6       0.00000000       0.00000000       0.00000000       0.00057504      -0.00352228       0.00393015
C       -0.33518607      -2.41395173       0.13117548       1.00000000       0.00000000 UNL C         7       0.00000000       0.00000000       0.00000000      -0.00040904       0.01116420      -0.00350213
C        0.66608937      -0.22667365      -0.30692700       1.00000000       0.00000000 UNL C         8       0.00000000       0.00000000       0.00000000      -0.00304077       0.01434606      -0.00507048
C       -1.71994828       2.25724824      -0.44058990       1.00000000       0.00000000 UNL C         9       0.00000000       0.00000000       0.00000000      -0.00057971      -0.00166529      -0.00189948
C       -2.45722950       0.16294699      -1.27001814       1.00000000       0.00000000 UNL C         1       0.00000000       0.00000000       0.00000000       0.00560651       0.00095625       0.00209283
C        1.95893650      -0.59267939      -0.08151363       1.00000000       0.00000000 UNL C         1       0.00000000       0.00000000       0.00000000       0.00260190       0.00652798       0.01717267
C       -0.83391511      -3.76614901       0.32755826       1.00000000       0.00000000 UNL C         1       0.00000000       0.00000000       0.00000000      -0.00365212       0.00308106      -0.00127165
C        2.98803666       0.40875207      -0.15914502       1.00000000       0.00000000 UNL C         1       0.00000000       0.00000000       0.00000000      -0.01454699      -0.00119913       0.00129168
C       -2.24165566       3.29024310       0.50777873       1.00000000       0.00000000 UNL C         1       0.00000000       0.00000000       0.00000000       0.00371045      -0.00864208       0.00154626
H        1.52633062      -2.42274257       0.43853965       1.00000000       0.00000000 UNL H         1       0.00000000       0.00000000       0.00000000       0.00340262       0.00562705      -0.00110183
H       -0.33712608      -4.46214402      -0.35388039       1.00000000       0.00000000 UNL H         1       0.00000000       0.00000000       0.00000000       0.00157462      -0.00391911      -0.00345402
H       -1.90688831      -3.76349802       0.10252087       1.00000000       0.00000000 UNL H         1       0.00000000       0.00000000       0.00000000       0.00093547       0.00049362      -0.00138114
H       -0.68679683      -4.10214872       1.35776210       1.00000000       0.00000000 UNL H         1       0.00000000       0.00000000       0.00000000       0.00309870      -0.00215595       0.00361970
H        3.99878402       0.31338206       0.07297491       1.00000000       0.00000000 UNL H         1       0.00000000       0.00000000       0.00000000       0.01024097      -0.00087575       0.00211523
H        4.13863094       2.31127278      -0.44839545       1.00000000       0.00000000 UNL H         2       0.00000000       0.00000000       0.00000000       0.01079078       0.00989014       0.00470127
H        4.64764879       2.86387845      -0.48278437       1.00000000       0.00000000 UNL H         2       0.00000000       0.00000000       0.00000000      -0.01601020      -0.01684177      -0.00054648
H       -1.43652884       3.96347243       0.78169990       1.00000000       0.00000000 UNL H         2       0.00000000       0.00000000       0.00000000      -0.00342038       0.00911633      -0.00250228
H       -2.66431604       2.81162067       1.38907981       1.00000000       0.00000000 UNL H         2       0.00000000       0.00000000       0.00000000       0.00721622       0.01215696      -0.00503800
H       -3.03791806       3.85733422       0.02436514       1.00000000       0.00000000 UNL H         2       0.00000000       0.00000000       0.00000000      -0.00027601      -0.00705709       0.00875729
24
Properties=species:S:1:pos:R:3:occupancy:R:1:bfactor:R:1:residuenames:S:1:atomtypes:S:1:residuenumbers:I:1:momenta:R:3:forces:R:3 charge=0 energy=-101.08167266845703 pbc="F F F"
O       -0.66461854       2.29739763      -1.02928296       1.00000000       0.00000000 UNL O         1       0.00000000       0.00000000       0.00000000       0.00262012       0.00128282       0.01764990
O       -2.32166804      -0.89444410      -1.81725469       1.00000000       0.00000000 UNL O         2       0.00000000       0.00000000       0.00000000       0.00076651      -0.01881881      -0.01157623
N       -0.14918297      -1.23186035      -0.00080449       1.00000000       0.00000000 UNL N         3       0.00000000       0.00000000       0.00000000      -0.00216611       0.00729071      -0.00554860
N        2.15423459      -0.62429648       0.19755613       1.00000000       0.00000000 UNL N         4       0.00000000       0.00000000       0.00000000       0.01420529       0.00544647       0.03061617
N       -2.62843577       1.15162807      -0.65894723       1.00000000       0.00000000 UNL N         5       0.00000000       0.00000000       0.00000000      -0.00817282       0.02213182       0.00666506
N        2.33730904      -1.89043747       0.23006582       1.00000000       0.00000000 UNL N         6       0.00000000       0.00000000       0.00000000      -0.01613411      -0.03343144      -0.01075220
C       -0.34220258      -2.36915184       0.14118773       1.00000000       0.00000000 UNL C         7       0.00000000       0.00000000       0.00000000       0.01335257       0.00981248       0.00242117
C        0.67071083      -0.14971775      -0.05087688       1.00000000       0.00000000 UNL C         8       0.00000000       0.00000000       0.00000000      -0.02195423       0.00517021      -0.00358024
C       -1.72713761       2.23447719      -0.47080299       1.00000000       0.00000000 UNL C         9       0.00000000       0.00000000       0.00000000       0.01019914      -0.00176856      -0.00204205
C       -2.42307430       0.12282041      -1.27554097       1.00000000       0.00000000 UNL C         1       0.00000000       0.00000000       0.00000000       0.00093794      -0.00184262      -0.01790598
C        1.96007386      -0.53718545       0.19285824       1.00000000       0.00000000 UNL C         1       0.00000000       0.00000000       0.00000000      -0.01687567      -0.00067318      -0.03377115
C       -0.88518250      -3.70968569       0.28904714       1.00000000       0.00000000 UNL C         1       0.00000000       0.00000000       0.00000000       0.00921888      -0.00747386       0.00476637
C        3.01460348       0.41870121       0.01307973       1.00000000       0.00000000 UNL C         1       0.00000000       0.00000000       0.00000000      -0.01619180      -0.00713723      -0.02020842
C       -2.25569484       3.25918728       0.48130178       1.00000000       0.00000000 UNL C         1       0.00000000       0.00000000       0.00000000       0.00963959       0.02910919       0.02307793
H        1.52055553      -2.42052333       0.38953001       1.00000000       0.00000000 UNL H         1       0.00000000       0.00000000       0.00000000       0.03554915       0.02347190       0.00412023
H       -0.37901246      -4.41505713      -0.37627600       1.00000000       0.00000000 UNL H         1       0.00000000       0.00000000       0.00000000       0.00192286       0.00027677       0.00284700
H       -1.94552069      -3.66776133       0.01458115       1.00000000       0.00000000 UNL H         1       0.00000000       0.00000000       0.00000000      -0.01351450      -0.00924605       0.00538312
H       -0.79979108      -4.05801458       1.32170562       1.00000000       0.00000000 UNL H         1       0.00000000       0.00000000       0.00000000       0.00525260      -0.01114932       0.00547913
H        4.04120650       0.25330933      -0.04741742       1.00000000       0.00000000 UNL H         1       0.00000000       0.00000000       0.00000000       0.01086676       0.00433809       0.00510950
H        4.19183274       2.26579874      -0.48582466       1.00000000       0.00000000 UNL H         2       0.00000000       0.00000000       0.00000000      -0.00216872      -0.00259608       0.00568366
H        4.70393862       2.79933861      -0.62921498       1.00000000       0.00000000 UNL H         2       0.00000000       0.00000000       0.00000000      -0.01029369      -0.00823566       0.01387661
H       -1.45179858       3.92353119       0.78241375       1.00000000       0.00000000 UNL H         2       0.00000000       0.00000000       0.00000000      -0.01188423      -0.01096282      -0.01947227
H       -2.70356481       2.77436599       1.34630075       1.00000000       0.00000000 UNL H         2       0.00000000       0.00000000       0.00000000       0.01189274       0.00658646      -0.00491498
H       -3.03490631       3.84219234      -0.01085857       1.00000000       0.00000000 UNL H         2       0.00000000       0.00000000       0.00000000      -0.00706983      -0.00158092       0.00207642
24
Properties=species:S:1:pos:R:3:occupancy:R:1:bfactor:R:1:residuenames:S:1:atomtypes:S:1:residuenumbers:I:1:momenta:R:3:forces:R:3 charge=0 energy=-113.89726257324219 pbc="F F F"
O        0.40798191       2.55188327       0.00525472       1.00000000       0.00000000 UNL O         1       0.00000000       0.00000000       0.00000000       0.02400253       0.02651081       0.00422010
O       -3.06725545      -0.41927054      -0.00902153       1.00000000       0.00000000 UNL O         2       0.00000000       0.00000000       0.00000000      -0.00609971      -0.02564283       0.01192909
N       -0.96893530      -1.29988501      -0.02996560       1.00000000       0.00000000 UNL N         3       0.00000000       0.00000000       0.00000000      -0.01446517      -0.00820009      -0.00391193
N        2.23731422       0.10690474      -0.05105323       1.00000000       0.00000000 UNL N         4       0.00000000       0.00000000       0.00000000       0.00114489      -0.03046715      -0.00320684
N       -1.32869971       1.04416474       0.00580931       1.00000000       0.00000000 UNL N         5       0.00000000       0.00000000       0.00000000      -0.00645983       0.01109752      -0.01778623
N        1.37427312      -1.95396767      -0.05699843       1.00000000       0.00000000 UNL N         6       0.00000000       0.00000000       0.00000000      -0.00165251       0.00871831       0.01093937
C        0.86576770       0.23730563      -0.03995130       1.00000000       0.00000000 UNL C         7       0.00000000       0.00000000       0.00000000      -0.00861602      -0.02666555       0.01865639
C        0.37782876      -1.03890582      -0.04218800       1.00000000       0.00000000 UNL C         8       0.00000000       0.00000000       0.00000000      -0.01675592       0.01449763      -0.01268917
C        0.02862783       1.39502570      -0.00871164       1.00000000       0.00000000 UNL C         9       0.00000000       0.00000000       0.00000000       0.02069748       0.02046815      -0.01069895
C       -1.86529292      -0.24915449      -0.01327857       1.00000000       0.00000000 UNL C         1       0.00000000       0.00000000       0.00000000      -0.01005885       0.02722333       0.02383544
C        2.47440105      -1.21612845      -0.06035764       1.00000000       0.00000000 UNL C         1       0.00000000       0.00000000       0.00000000       0.00756761       0.03023804      -0.00002158
C       -1.44525997      -2.67446710       0.00345383       1.00000000       0.00000000 UNL C         1       0.00000000       0.00000000       0.00000000      -0.00567520      -0.02405515       0.00147535
C        3.19511039       1.19998756      -0.04516260       1.00000000       0.00000000 UNL C         1       0.00000000       0.00000000       0.00000000      -0.00671763      -0.01637453       0.00212144
C       -2.31589441       2.11769442       0.04690979       1.00000000       0.00000000 UNL C         1       0.00000000       0.00000000       0.00000000      -0.00665545       0.00703268      -0.00804794
H        3.47535274      -1.61291742      -0.06853731       1.00000000       0.00000000 UNL H         1       0.00000000       0.00000000       0.00000000       0.01823720       0.00094024      -0.00688040
H       -1.07267527      -3.21437738      -0.86413267       1.00000000       0.00000000 UNL H         1       0.00000000       0.00000000       0.00000000       0.00454183      -0.00045485      -0.00930008
H       -2.52871429      -2.66217756       0.00169871       1.00000000       0.00000000 UNL H         1       0.00000000       0.00000000       0.00000000       0.00245760       0.02289613      -0.00606208
H       -1.07696914      -3.16450579       0.90221032       1.00000000       0.00000000 UNL H         1       0.00000000       0.00000000       0.00000000       0.00103909      -0.02624313       0.00721818
H        4.19831009       0.78661522      -0.07712606       1.00000000       0.00000000 UNL H         1       0.00000000       0.00000000       0.00000000      -0.00183820      -0.01510139       0.00018419
H        3.02983158       1.83751812      -0.90915592       1.00000000       0.00000000 UNL H         2       0.00000000       0.00000000       0.00000000       0.00570163       0.01039603       0.01038407